
Host: cm018.hpc.nyu.edu

Timers On : Thu Nov  7 14:38:12 2024
Timers Off: Thu Nov  7 14:38:12 2024

Wall Time:        0.37 seconds

                                                       Time (seconds)
Module                                       User      System        Wall        Calls

--------------------------------------------------------------------------------------

**************************************************************************************
