#     Step Nr.          Time[fs]        Kin.[a.u.]          Temp[K]            Pot.[a.u.]        Cons Qty[a.u.]        UsedTime[s]
         0            0.000000         0.275037913       300.000000000     -1103.072224874     -1102.797186961         0.000000000
         1            0.500000         0.281275181       306.803354667     -1103.080386986     -1102.797334868        50.562682685
         2            1.000000         0.275101534       300.069395706     -1103.092955723     -1102.797607456         9.840903126
         3            1.500000         0.286291062       312.274471200     -1103.109011384     -1102.797965827         9.986894548
         4            2.000000         0.288037844       314.179788344     -1103.122230271     -1102.798197536         9.706691924
         5            2.500000         0.303412635       330.949975617     -1103.132080341     -1102.798294382         9.740090393
         6            3.000000         0.326705707       356.357096824     -1103.138467314     -1102.798262217         9.836332586
         7            3.500000         0.325239196       354.757487425     -1103.140043834     -1102.798114718         9.959038679
         8            4.000000         0.326565033       356.203655968     -1103.141138169     -1102.798024006         9.854616698
         9            4.500000         0.316209264       344.908009926     -1103.138536479     -1102.797963675         9.898405615
        10            5.000000         0.309604219       337.703499980     -1103.134790245     -1102.797885376        11.924559321
        11            5.500000         0.317779319       346.620562084     -1103.136810941     -1102.797923665         9.831131503
        12            6.000000         0.316198621       344.896401293     -1103.137807909     -1102.797978070         9.782817665
        13            6.500000         0.306773555       334.615928106     -1103.138295256     -1102.797986305         9.009131629
        14            7.000000         0.306199110       333.989348136     -1103.138295490     -1102.797963110         9.094060127
        15            7.500000         0.303421451       330.959591886     -1103.138690694     -1102.797910594         8.972868815
        16            8.000000         0.297577515       324.585267369     -1103.140517779     -1102.797918440         8.943548169
        17            8.500000         0.291333385       317.774428654     -1103.142772659     -1102.798012172         8.798230734
        18            9.000000         0.291907748       318.400920169     -1103.144453663     -1102.798084497         8.938884750
        19            9.500000         0.285368315       311.267976656     -1103.146021082     -1102.798144068         8.825076967
        20           10.000000         0.299143479       326.293357056     -1103.148288012     -1102.798157359        11.622534718
        21           10.500000         0.310930020       339.149628858     -1103.149772275     -1102.798125851         8.847222019
        22           11.000000         0.306129652       333.913585971     -1103.148762950     -1102.798049460         9.023366898
        23           11.500000         0.312746175       341.130615710     -1103.146379739     -1102.797972945         9.001442984
        24           12.000000         0.301705096       329.087463236     -1103.144140330     -1102.797878772         8.892488170
        25           12.500000         0.286886237       312.923663411     -1103.142585913     -1102.797804646         8.882605497
        26           13.000000         0.285673419       311.600771210     -1103.143511258     -1102.797758795         8.970747005
        27           13.500000         0.300814569       328.116112954     -1103.146803966     -1102.797754107         9.001882482
        28           14.000000         0.288883610       315.102315418     -1103.153345561     -1102.797801102         8.758981459
        29           14.500000         0.298010882       325.057966284     -1103.163032317     -1102.797934962         8.943187196
        30           15.000000         0.314667449       343.226262007     -1103.172863510     -1102.798053312        11.959466174
        31           15.500000         0.336381785       366.911363899     -1103.182174497     -1102.798132230         8.703359149
        32           16.000000         0.333933361       364.240723227     -1103.189164828     -1102.798209509         8.714128081
        33           16.500000         0.326210735       355.817201503     -1103.193643382     -1102.798294813         8.773391832
        34           17.000000         0.327912098       357.672978931     -1103.196911656     -1102.798427333         8.728524167
        35           17.500000         0.312459437       340.817853515     -1103.192399445     -1102.798453244         7.901454289
        36           18.000000         0.304827397       332.493139582     -1103.186504017     -1102.798347208         8.748144612
        37           18.500000         0.309504586       337.594824256     -1103.180391067     -1102.798076808         8.715424784
        38           19.000000         0.288133723       314.284369484     -1103.175494867     -1102.797796426         8.599480543
        39           19.500000         0.286576864       312.586212021     -1103.179206775     -1102.797910768         8.655226655
        40           20.000000         0.295635513       322.467012338     -1103.191716323     -1102.798365646        12.226002704
        41           20.500000         0.316925643       345.689407147     -1103.204449841     -1102.798690180         7.853902671
        42           21.000000         0.322351745       351.607974807     -1103.209619812     -1102.798766028         7.818807956
        43           21.500000         0.315101312       343.699501696     -1103.208821880     -1102.798691335         7.806356087
        44           22.000000         0.303484799       331.028689796     -1103.207100855     -1102.798601689         8.721877094
        45           22.500000         0.295070608       321.850837044     -1103.204576675     -1102.798545283         8.555814154
        46           23.000000         0.290627270       317.004227927     -1103.202657957     -1102.798542795         7.693735149
        47           23.500000         0.290147023       316.480393843     -1103.203291220     -1102.798604934         7.788906787
        48           24.000000         0.287856038       313.981481764     -1103.204972686     -1102.798665119         7.713094831
        49           24.500000         0.304608630       332.254518253     -1103.208042553     -1102.798682258         7.927467410
        50           25.000000         0.299803555       327.013340481     -1103.209277178     -1102.798623914        10.732608963
        51           25.500000         0.298721952       325.833572198     -1103.207376565     -1102.798486764         7.879215311
        52           26.000000         0.298760769       325.875912585     -1103.208361831     -1102.798466027         7.928905997
        53           26.500000         0.309031368       337.078657639     -1103.210634313     -1102.798536604         7.856887978
        54           27.000000         0.303907297       331.489533084     -1103.213575784     -1102.798629014         7.785385888
        55           27.500000         0.293985914       320.667697966     -1103.216617685     -1102.798682258         7.752388455
        56           28.000000         0.280801702       306.286903319     -1103.218387697     -1102.798685095         7.745670110
        57           28.500000         0.287359166       313.439514402     -1103.217093489     -1102.798658640         7.728309490
        58           29.000000         0.292557009       319.109107585     -1103.211275621     -1102.798543205         7.839961279
        59           29.500000         0.293722015       320.379848007     -1103.206219153     -1102.798438919         7.843257230
        60           30.000000         0.279789248       305.182560000     -1103.203329099     -1102.798355287        10.593847543
        61           30.500000         0.291540065       317.999866098     -1103.203737285     -1102.798364595         7.894564401
        62           31.000000         0.298537452       325.632327779     -1103.205975679     -1102.798402639         7.784500457
        63           31.500000         0.312054951       340.376657243     -1103.208717354     -1102.798454001         7.750608411
        64           32.000000         0.311194829       339.438471705     -1103.211505190     -1102.798564844         7.657007489
        65           32.500000         0.309050448       337.099469345     -1103.210090850     -1102.798598739         7.796274267
        66           33.000000         0.322849108       352.150478510     -1103.205803073     -1102.798516811         7.990979102
        67           33.500000         0.319212336       348.183637044     -1103.200608683     -1102.798370230         8.158564996
        68           34.000000         0.320098201       349.149901790     -1103.192083758     -1102.798212650         7.781192340
        69           34.500000         0.311152561       339.392367116     -1103.184457459     -1102.798111345         7.892623264
        70           35.000000         0.308223156       336.197093008     -1103.179590925     -1102.798065794        10.689329635
        71           35.500000         0.295762661       322.605699619     -1103.178758866     -1102.798086014         7.791733086
        72           36.000000         0.289093248       315.330980068     -1103.181070301     -1102.798131306         7.815885477
        73           36.500000         0.296758983       323.692446588     -1103.184856514     -1102.798181179         7.865957711
        74           37.000000         0.283301770       309.013874474     -1103.189687686     -1102.798296325         7.909632895
        75           37.500000         0.307287550       335.176573490     -1103.193978294     -1102.798424785         7.904498078
        76           38.000000         0.294079168       320.769415788     -1103.193067712     -1102.798390848         7.780569855
        77           38.500000         0.273095154       297.880919070     -1103.191496856     -1102.798317875         7.787107248
        78           39.000000         0.276777888       301.897893539     -1103.187570921     -1102.798193963         7.884513345
        79           39.500000         0.261582633       285.323536793     -1103.184134653     -1102.798069297         7.887217514
        80           40.000000         0.258551179       282.016952135     -1103.183538370     -1102.797968391        11.000675317
        81           40.500000         0.271981952       296.666683905     -1103.188770723     -1102.798060287         7.831974171
        82           41.000000         0.276599312       301.703110168     -1103.197703177     -1102.798263999         7.834344238
        83           41.500000         0.287523196       313.618432082     -1103.206629278     -1102.798478569         7.910078481
        84           42.000000         0.293699689       320.355495162     -1103.212172880     -1102.798586463         7.917079709
        85           42.500000         0.295464181       322.280130831     -1103.210721047     -1102.798547497         7.823085371
        86           43.000000         0.284677774       310.514762406     -1103.207836639     -1102.798473633         7.733075481
        87           43.500000         0.275464978       300.465825670     -1103.206884938     -1102.798448603         7.809240494
        88           44.000000         0.280293150       305.732195877     -1103.204895811     -1102.798385972         7.903796349
        89           44.500000         0.275886339       300.925428773     -1103.203155127     -1102.798367975         7.813375659
        90           45.000000         0.269718793       294.198124488     -1103.202842876     -1102.798408455        11.087405030
        91           45.500000         0.282952851       308.633287840     -1103.203435972     -1102.798455488         7.857301887
        92           46.000000         0.287750817       313.866710813     -1103.202194633     -1102.798425766         7.772865411
        93           46.500000         0.284437844       310.253057053     -1103.198493161     -1102.798306898         7.767149977
        94           47.000000         0.262236463       286.036707625     -1103.193963085     -1102.798205664         7.674397219
        95           47.500000         0.268366960       292.723600219     -1103.192058737     -1102.798180715         7.829677481
        96           48.000000         0.273218598       298.015567006     -1103.191228586     -1102.798151474         7.716170814
        97           48.500000         0.273209308       298.005433766     -1103.191828065     -1102.798124196         7.722028177
        98           49.000000         0.271879948       296.555422509     -1103.194477138     -1102.798198268         7.802890342
        99           49.500000         0.291679501       318.151957922     -1103.197249934     -1102.798287302         7.884657919
       100           50.000000         0.268525854       292.896915304     -1103.199843434     -1102.798372484        10.608479850
       101           50.500000         0.267368667       291.634703426     -1103.199872750     -1102.798343229         7.859805539
       102           51.000000         0.269040610       293.458389473     -1103.197463950     -1102.798257805         7.879822433
       103           51.500000         0.266273285       290.439905627     -1103.194394980     -1102.798144808         7.758744068
       104           52.000000         0.260508895       284.152347474     -1103.194378702     -1102.798145819         7.916012812
       105           52.500000         0.261893441       285.662553477     -1103.196766189     -1102.798206156         7.918645773
       106           53.000000         0.265611145       289.717671396     -1103.200984021     -1102.798283216         7.856622297
       107           53.500000         0.273545850       298.372519855     -1103.207239627     -1102.798383164         7.902966425
       108           54.000000         0.260705957       284.367294999     -1103.213804513     -1102.798519007         7.847709775
       109           54.500000         0.266633124       290.832403370     -1103.219157744     -1102.798656770         7.935130324
       110           55.000000         0.258780840       282.267456650     -1103.220053509     -1102.798697489        11.192070510
       111           55.500000         0.262794153       286.645012396     -1103.218294705     -1102.798643814         7.732158002
       112           56.000000         0.277222324       302.382665382     -1103.215749884     -1102.798554874         7.666304491
       113           56.500000         0.271519783       296.162569949     -1103.214221859     -1102.798521970         7.785944957
       114           57.000000         0.279422071       304.782058879     -1103.214442266     -1102.798532396         7.870240066
       115           57.500000         0.274387998       299.291100149     -1103.214704259     -1102.798519305         7.861378990
       116           58.000000         0.264692674       288.715840665     -1103.214847640     -1102.798543760         7.832547888
       117           58.500000         0.264006646       287.967549333     -1103.215806738     -1102.798596951         7.940955110
       118           59.000000         0.281295232       306.825225514     -1103.216786088     -1102.798626942         7.860560935
       119           59.500000         0.277954644       303.181450542     -1103.215055702     -1102.798594304         7.879236810
       120           60.000000         0.271970697       296.654407925     -1103.210608238     -1102.798473491        10.571975634
       121           60.500000         0.253435132       276.436579236     -1103.207076063     -1102.798382776         7.916281331
       122           61.000000         0.254959233       278.099005054     -1103.205762155     -1102.798356423         7.894088913
       123           61.500000         0.260408767       284.043132327     -1103.207268446     -1102.798379019         7.841156177
       124           62.000000         0.269791323       294.277236379     -1103.208885186     -1102.798423054         7.931913838
       125           62.500000         0.277772726       302.983021389     -1103.212300659     -1102.798517894         7.911806945
       126           63.000000         0.285103203       310.978803037     -1103.213468900     -1102.798510424         7.874074321
       127           63.500000         0.293759963       320.421239538     -1103.213063170     -1102.798452187         7.840155955
       128           64.000000         0.285221862       311.108231481     -1103.209938649     -1102.798340590         7.922738370
       129           64.500000         0.286618578       312.631711784     -1103.209175328     -1102.798268698         7.741548348
       130           65.000000         0.299380155       326.551512676     -1103.213457615     -1102.798339891        10.595056508
       131           65.500000         0.278108091       303.348824025     -1103.218355994     -1102.798439103         7.867451858
       132           66.000000         0.269040297       293.458048206     -1103.219437064     -1102.798474315         7.875594407
       133           66.500000         0.288378079       314.550902484     -1103.218085335     -1102.798453319         7.864093039
       134           67.000000         0.285176462       311.058711448     -1103.214998962     -1102.798349099         7.813984800
       135           67.500000         0.272495952       297.227334637     -1103.210568187     -1102.798182908         7.912542205
       136           68.000000         0.273919772       298.780377981     -1103.209669391     -1102.798107843         7.872567352
       137           68.500000         0.287665229       313.773354958     -1103.213270224     -1102.798190520         7.764645502
       138           69.000000         0.299289231       326.452337212     -1103.216533278     -1102.798283787         7.769246113
       139           69.500000         0.293122308       319.725712114     -1103.218853460     -1102.798367867         7.739688959
       140           70.000000         0.291845720       318.333262846     -1103.219057221     -1102.798397440        11.219974305
       141           70.500000         0.282476139       308.113310459     -1103.216558296     -1102.798366958         7.830199439
       142           71.000000         0.287984175       314.121248733     -1103.215629499     -1102.798400016         7.810583428
       143           71.500000         0.275725421       300.749906131     -1103.216043064     -1102.798465701         7.726054933
       144           72.000000         0.270060523       294.570868759     -1103.214948434     -1102.798460689         7.830793396
       145           72.500000         0.270031535       294.539250227     -1103.212045402     -1102.798390193         7.785118647
       146           73.000000         0.250562424       273.303147170     -1103.208809074     -1102.798303668         7.817319155
       147           73.500000         0.249312406       271.939679455     -1103.206495238     -1102.798250277         7.830471102
       148           74.000000         0.255649907       278.852363494     -1103.205687004     -1102.798214209         7.872048683
       149           74.500000         0.267995412       292.318330823     -1103.207558817     -1102.798264073         7.867132217
       150           75.000000         0.269830593       294.320070924     -1103.213662581     -1102.798411124        10.507359847
       151           75.500000         0.281934913       307.522963573     -1103.220141945     -1102.798522728         7.691861633
       152           76.000000         0.271446677       296.082828511     -1103.220613085     -1102.798432356         7.668595362
       153           76.500000         0.269960014       294.461237440     -1103.219085003     -1102.798286207         7.627834782
       154           77.000000         0.279291645       304.639795986     -1103.219383233     -1102.798207615         7.702812355
       155           77.500000         0.274137094       299.017423968     -1103.224228504     -1102.798312309         7.779490333
       156           78.000000         0.282828579       308.497736947     -1103.228672907     -1102.798418909         7.821864117
       157           78.500000         0.287575920       313.675941322     -1103.233569340     -1102.798524148         8.659268029
       158           79.000000         0.300122215       327.360921501     -1103.236774221     -1102.798566134         7.794011220
       159           79.500000         0.299546396       326.732841883     -1103.235157863     -1102.798456296         7.817940615
       160           80.000000         0.293227524       319.840476795     -1103.229135139     -1102.798299220        10.681180615
       161           80.500000         0.277074994       302.221964808     -1103.223826238     -1102.798154301         7.850917716
       162           81.000000         0.275556605       300.565768289     -1103.220793932     -1102.798136896         7.863072354
       163           81.500000         0.279396602       304.754278965     -1103.218996702     -1102.798169657         7.887746811
       164           82.000000         0.279236899       304.580081533     -1103.218310774     -1102.798228369         7.801537067
       165           82.500000         0.296923519       323.871915798     -1103.214451426     -1102.798218694         7.918687221
       166           83.000000         0.287438844       313.526423629     -1103.211593219     -1102.798183570         7.920162264
       167           83.500000         0.274048043       298.920291553     -1103.206317103     -1102.798065616         7.895422172
       168           84.000000         0.290249553       316.592229508     -1103.202430393     -1102.797984567         7.892263789
       169           84.500000         0.275568769       300.579036681     -1103.200087264     -1102.797968823         7.840046171
       170           85.000000         0.291713960       318.189543877     -1103.200502035     -1102.797991136        10.830983661
       171           85.500000         0.285081084       310.954676694     -1103.200622075     -1102.797989870         7.790928029
       172           86.000000         0.274516307       299.431054462     -1103.202423499     -1102.797988735         7.872917783
       173           86.500000         0.271991033       296.676589340     -1103.203371826     -1102.797974122         7.913111676
       174           87.000000         0.269907094       294.403514485     -1103.205837502     -1102.797964356         7.817409627
       175           87.500000         0.263519434       287.436118844     -1103.207759041     -1102.797959003         7.772450846
       176           88.000000         0.275333561       300.322480566     -1103.213158940     -1102.798060320         7.549956232
       177           88.500000         0.290309804       316.657948804     -1103.217895069     -1102.798116464         7.706174575
       178           89.000000         0.295264681       322.062524412     -1103.219957473     -1102.798096093         7.755805902
       179           89.500000         0.293694120       320.349421321     -1103.221425264     -1102.798091631         7.758012645
       180           90.000000         0.292015553       318.518508876     -1103.221739442     -1102.798043770        10.863508105
       181           90.500000         0.308580242       336.586588611     -1103.221948556     -1102.798045548         7.910361465
       182           91.000000         0.302823908       330.307816206     -1103.222021731     -1102.798041457         7.730440628
       183           91.500000         0.312411283       340.765329862     -1103.221529370     -1102.798045164         7.832584731
       184           92.000000         0.310169732       338.320337927     -1103.218627220     -1102.797999809         7.869957808
       185           92.500000         0.305315727       333.025789959     -1103.217953281     -1102.798020741         8.759478062
       186           93.000000         0.304527542       332.166070449     -1103.215801190     -1102.797996085         7.824952852
       187           93.500000         0.293648010       320.299126150     -1103.211217002     -1102.797914686         7.920319125
       188           94.000000         0.286916822       312.957023975     -1103.209468626     -1102.797915454         7.901244972
       189           94.500000         0.283406816       309.128454161     -1103.209506812     -1102.797928881         7.940361679
       190           95.000000         0.278653131       303.943330933     -1103.206740018     -1102.797855153        11.070913427
       191           95.500000         0.277382024       302.556860302     -1103.206424596     -1102.797856245         7.862402570
       192           96.000000         0.278388254       303.654413931     -1103.208730876     -1102.797894100         7.981959958
       193           96.500000         0.295890689       322.745348070     -1103.210566273     -1102.797930643         7.887402739
       194           97.000000         0.282089259       307.691318119     -1103.210696464     -1102.797889305         7.881890479
       195           97.500000         0.294039934       320.726620174     -1103.210708215     -1102.797831688         7.832668595
       196           98.000000         0.289901170       316.212227215     -1103.209506996     -1102.797814283         7.877350189
       197           98.500000         0.284325599       310.130625054     -1103.210458015     -1102.797887367         7.940846395
       198           99.000000         0.283937973       309.707818423     -1103.212956427     -1102.797988737         7.787467379
       199           99.500000         0.283684951       309.431832875     -1103.212918116     -1102.797991960         7.726937041
       200          100.000000         0.288597461       314.790195255     -1103.209062353     -1102.797891960        11.205305208
       201          100.500000         0.277516297       302.703319120     -1103.205567497     -1102.797754433         7.742834419
       202          101.000000         0.279049594       304.375776721     -1103.204135450     -1102.797692882         7.760301113
       203          101.500000         0.285512281       311.425008689     -1103.206464766     -1102.797713671         7.791340292
       204          102.000000         0.288463373       314.643938457     -1103.211554271     -1102.797802267         7.772066340
       205          102.500000         0.281759142       307.331239662     -1103.216959280     -1102.797903197         7.726682287
       206          103.000000         0.280610493       306.078340348     -1103.222247937     -1102.798018023         7.793342721
       207          103.500000         0.278480256       303.754765876     -1103.228258702     -1102.798145452         7.823995948
       208          104.000000         0.284111440       309.897029444     -1103.232054445     -1102.798247998         7.861617099
       209          104.500000         0.301877974       329.276030774     -1103.237366591     -1102.798401775         7.890699223
       210          105.000000         0.298091283       325.145665024     -1103.237712695     -1102.798473193        10.985191159
       211          105.500000         0.290548806       316.918642064     -1103.234896686     -1102.798470075         7.801417094
       212          106.000000         0.279155610       304.491414134     -1103.230532362     -1102.798401875         7.840538722
       213          106.500000         0.278147622       303.391942583     -1103.225470179     -1102.798287687         7.758444440
       214          107.000000         0.281369755       306.906512708     -1103.221161097     -1102.798132947         7.804091606
       215          107.500000         0.273359084       298.168803469     -1103.218218655     -1102.798028187         7.892934136
       216          108.000000         0.277440695       302.620855492     -1103.221589982     -1102.798154241         7.767590411
       217          108.500000         0.294637245       321.378142375     -1103.227749034     -1102.798367680         7.869086035
       218          109.000000         0.283905516       309.672415679     -1103.232089550     -1102.798511284         7.805551730
       219          109.500000         0.284292434       310.094449554     -1103.233813511     -1102.798558001         7.847944535
       220          110.000000         0.290494455       316.859358698     -1103.235491612     -1102.798567037        10.896806013
       221          110.500000         0.294644258       321.385792369     -1103.236485151     -1102.798551287         7.692108955
       222          111.000000         0.281859608       307.440824208     -1103.235679834     -1102.798471436         7.673649564
       223          111.500000         0.283010666       308.696350135     -1103.232941143     -1102.798336542         7.800532196
       224          112.000000         0.277054515       302.199626618     -1103.231066663     -1102.798249581         7.763844002
       225          112.500000         0.286586350       312.596558566     -1103.231961943     -1102.798240581         7.836543337
       226          113.000000         0.295215119       322.008463762     -1103.234504058     -1102.798267042         7.825519271
       227          113.500000         0.292436071       318.977192468     -1103.238287296     -1102.798301609         7.939961456